# vtk DataFile Version 1.0
ECM-CELL DIFFUSION-MECHANICS
ASCII

DATASET UNSTRUCTURED_GRID
POINTS      777 float
1.50000000E+01 3.00000000E+01 0.00000000E+00 
-5.00000000E+00 3.00000000E+01 0.00000000E+00 
5.00000000E+00 2.00000000E+01 0.00000000E+00 
5.00000000E+00 -1.00000000E+01 0.00000000E+00 
-2.50000000E+01 -1.00000000E+01 0.00000000E+00 
-2.69134178E+01 -9.61939812E+00 0.00000000E+00 
-2.85355339E+01 -8.53553391E+00 0.00000000E+00 
-2.96193981E+01 -6.91341734E+00 0.00000000E+00 
-3.00000000E+01 -5.00000000E+00 0.00000000E+00 
-2.96193981E+01 -3.08658290E+00 0.00000000E+00 
-2.85355339E+01 -1.46446609E+00 0.00000000E+00 
-2.69134178E+01 -3.80602330E-01 0.00000000E+00 
-2.50000000E+01 0.00000000E+00 0.00000000E+00 
-5.00000000E+00 0.00000000E+00 0.00000000E+00 
1.30000000E+01 3.00000000E+01 0.00000000E+00 
1.10000000E+01 3.00000000E+01 0.00000000E+00 
9.00000000E+00 3.00000000E+01 0.00000000E+00 
7.00000000E+00 3.00000000E+01 0.00000000E+00 
5.00000000E+00 3.00000000E+01 0.00000000E+00 
3.00000000E+00 3.00000000E+01 0.00000000E+00 
1.00000000E+00 3.00000000E+01 0.00000000E+00 
-1.00000000E+00 3.00000000E+01 0.00000000E+00 
-3.00000000E+00 3.00000000E+01 0.00000000E+00 
6.42857122E+00 2.14285717E+01 0.00000000E+00 
7.85714293E+00 2.28571434E+01 0.00000000E+00 
9.28571415E+00 2.42857151E+01 0.00000000E+00 
1.07142859E+01 2.57142849E+01 0.00000000E+00 
1.21428576E+01 2.71428566E+01 0.00000000E+00 
1.35714283E+01 2.85714283E+01 0.00000000E+00 
5.00000000E+00 1.80000000E+01 0.00000000E+00 
5.00000000E+00 1.60000000E+01 0.00000000E+00 
5.00000000E+00 1.40000000E+01 0.00000000E+00 
5.00000000E+00 1.20000000E+01 0.00000000E+00 
5.00000000E+00 1.00000000E+01 0.00000000E+00 
5.00000000E+00 8.00000000E+00 0.00000000E+00 
5.00000000E+00 6.00000000E+00 0.00000000E+00 
5.00000000E+00 4.00000000E+00 0.00000000E+00 
5.00000000E+00 2.00000000E+00 0.00000000E+00 
5.00000000E+00 0.00000000E+00 0.00000000E+00 
5.00000000E+00 -2.00000000E+00 0.00000000E+00 
5.00000000E+00 -4.00000000E+00 0.00000000E+00 
5.00000000E+00 -6.00000000E+00 0.00000000E+00 
5.00000000E+00 -8.00000000E+00 0.00000000E+00 
3.00000000E+00 -1.00000000E+01 0.00000000E+00 
1.00000000E+00 -1.00000000E+01 0.00000000E+00 
-1.00000000E+00 -1.00000000E+01 0.00000000E+00 
-3.00000000E+00 -1.00000000E+01 0.00000000E+00 
-5.00000000E+00 -1.00000000E+01 0.00000000E+00 
-7.00000000E+00 -1.00000000E+01 0.00000000E+00 
-9.00000000E+00 -1.00000000E+01 0.00000000E+00 
-1.10000000E+01 -1.00000000E+01 0.00000000E+00 
-1.30000000E+01 -1.00000000E+01 0.00000000E+00 
-1.50000000E+01 -1.00000000E+01 0.00000000E+00 
-1.70000000E+01 -1.00000000E+01 0.00000000E+00 
-1.90000000E+01 -1.00000000E+01 0.00000000E+00 
-2.10000000E+01 -1.00000000E+01 0.00000000E+00 
-2.30000000E+01 -1.00000000E+01 0.00000000E+00 
-7.00000000E+00 0.00000000E+00 0.00000000E+00 
-9.00000000E+00 0.00000000E+00 0.00000000E+00 
-1.10000000E+01 0.00000000E+00 0.00000000E+00 
-1.30000000E+01 0.00000000E+00 0.00000000E+00 
-1.50000000E+01 0.00000000E+00 0.00000000E+00 
-1.70000000E+01 0.00000000E+00 0.00000000E+00 
-1.90000000E+01 0.00000000E+00 0.00000000E+00 
-2.10000000E+01 0.00000000E+00 0.00000000E+00 
-2.30000000E+01 0.00000000E+00 0.00000000E+00 
-5.00000000E+00 2.80000000E+01 0.00000000E+00 
-5.00000000E+00 2.60000000E+01 0.00000000E+00 
-5.00000000E+00 2.40000000E+01 0.00000000E+00 
-5.00000000E+00 2.20000000E+01 0.00000000E+00 
-5.00000000E+00 2.00000000E+01 0.00000000E+00 
-5.00000000E+00 1.80000000E+01 0.00000000E+00 
-5.00000000E+00 1.60000000E+01 0.00000000E+00 
-5.00000000E+00 1.40000000E+01 0.00000000E+00 
-5.00000000E+00 1.20000000E+01 0.00000000E+00 
-5.00000000E+00 1.00000000E+01 0.00000000E+00 
-5.00000000E+00 8.00000000E+00 0.00000000E+00 
-5.00000000E+00 6.00000000E+00 0.00000000E+00 
-5.00000000E+00 4.00000000E+00 0.00000000E+00 
-5.00000000E+00 2.00000000E+00 0.00000000E+00 
-2.59871254E+01 -7.91282892E+00 0.00000000E+00 
-2.72089272E+01 -7.22517633E+00 0.00000000E+00 
-2.66474552E+01 -5.39335680E+00 0.00000000E+00 
-2.69874706E+01 -4.19447088E+00 0.00000000E+00 
3.56631780E+00 1.81858082E+01 0.00000000E+00 
3.45538449E+00 1.60969982E+01 0.00000000E+00 
-8.99606419E+00 -8.32854271E+00 0.00000000E+00 
1.15325785E+01 2.76091194E+01 0.00000000E+00 
8.69346333E+00 2.86210556E+01 0.00000000E+00 
6.79735470E+00 2.83068199E+01 0.00000000E+00 
4.81789303E+00 2.81218548E+01 0.00000000E+00 
2.81581450E+00 2.80152245E+01 0.00000000E+00 
8.33386540E-01 2.80571632E+01 0.00000000E+00 
3.39765048E+00 1.40790730E+01 0.00000000E+00 
3.36072111E+00 1.20805902E+01 0.00000000E+00 
3.33418083E+00 1.00849323E+01 0.00000000E+00 
3.31360078E+00 8.08838463E+00 0.00000000E+00 
3.29503798E+00 6.08961487E+00 0.00000000E+00 
3.27511024E+00 4.08798981E+00 0.00000000E+00 
3.24555063E+00 2.08999419E+00 0.00000000E+00 
-3.39916706E+00 1.91835046E-01 0.00000000E+00 
3.19515896E+00 7.99414515E-02 0.00000000E+00 
3.08858156E+00 -1.95740485E+00 0.00000000E+00 
2.94115114E+00 -4.00789595E+00 0.00000000E+00 
2.95735145E+00 -6.02382755E+00 0.00000000E+00 
2.99156761E+00 -8.02272415E+00 0.00000000E+00 
-3.03548622E+00 -8.25239944E+00 0.00000000E+00 
-5.03107357E+00 -8.30240726E+00 0.00000000E+00 
-7.01400518E+00 -8.32370090E+00 0.00000000E+00 
-1.09846535E+01 -8.33255196E+00 0.00000000E+00 
-1.29763451E+01 -8.34380913E+00 0.00000000E+00 
-1.49628611E+01 -8.35872173E+00 0.00000000E+00 
-1.69386921E+01 -8.37445927E+00 0.00000000E+00 
-1.88995705E+01 -8.38477707E+00 0.00000000E+00 
-2.08368797E+01 -8.38374519E+00 0.00000000E+00 
-2.27050743E+01 -8.35194588E+00 0.00000000E+00 
-2.44529305E+01 -1.81291687E+00 0.00000000E+00 
-2.44611835E+01 -8.25364876E+00 0.00000000E+00 
-7.03477573E+00 -1.61946285E+00 0.00000000E+00 
-9.00131798E+00 -1.63337088E+00 0.00000000E+00 
-1.09891205E+01 -1.64573705E+00 0.00000000E+00 
-1.29806490E+01 -1.65276051E+00 0.00000000E+00 
-1.49665661E+01 -1.65118086E+00 0.00000000E+00 
-1.69362106E+01 -1.64144766E+00 0.00000000E+00 
-1.88823471E+01 -1.62573457E+00 0.00000000E+00 
-2.07968693E+01 -1.61687005E+00 0.00000000E+00 
-2.26661606E+01 -1.65481305E+00 0.00000000E+00 
-3.14961743E+00 2.61050987E+01 0.00000000E+00 
-3.21332860E+00 2.41569138E+01 0.00000000E+00 
-3.23101664E+00 2.21709061E+01 0.00000000E+00 
-3.19988894E+00 2.01672287E+01 0.00000000E+00 
-3.19480872E+00 1.81522160E+01 0.00000000E+00 
-3.22400498E+00 1.61377392E+01 0.00000000E+00 
-3.26183391E+00 1.41241846E+01 0.00000000E+00 
-3.29545403E+00 1.21142969E+01 0.00000000E+00 
-3.32145929E+00 1.01066618E+01 0.00000000E+00 
-3.34261227E+00 8.10189915E+00 0.00000000E+00 
-3.36075759E+00 6.10010099E+00 0.00000000E+00 
-3.37989211E+00 4.10786200E+00 0.00000000E+00 
-3.39658475E+00 2.12506461E+00 0.00000000E+00 
9.87431145E+00 2.69113979E+01 0.00000000E+00 
5.55943680E+00 2.24666195E+01 0.00000000E+00 
8.27692127E+00 2.52841549E+01 0.00000000E+00 
1.21497765E+01 2.87516937E+01 0.00000000E+00 
7.00510788E+00 2.38013420E+01 0.00000000E+00 
-2.55711937E+01 -3.71893096E+00 0.00000000E+00 
-2.53829994E+01 -6.46415377E+00 0.00000000E+00 
-3.41579247E+00 -1.53762901E+00 0.00000000E+00 
-3.08106852E+00 2.80612659E+01 0.00000000E+00 
-8.99859238E+00 -6.65214443E+00 0.00000000E+00 
-1.29351008E+00 2.61693573E+01 0.00000000E+00 
6.86967373E+00 2.63770676E+01 0.00000000E+00 
1.54031169E+00 2.17246723E+00 0.00000000E+00 
1.31703186E+00 -1.76688719E+00 0.00000000E+00 
-5.08228636E+00 -6.62115431E+00 0.00000000E+00 
-9.00249004E+00 -3.29739213E+00 0.00000000E+00 
-1.09824476E+01 -3.30994868E+00 0.00000000E+00 
-1.29688711E+01 -3.32068324E+00 0.00000000E+00 
-1.49453335E+01 -3.32586026E+00 0.00000000E+00 
-1.68954639E+01 -3.31989431E+00 0.00000000E+00 
-1.88051834E+01 -3.30147409E+00 0.00000000E+00 
-2.24104786E+01 -3.31642485E+00 0.00000000E+00 
-1.47017288E+00 2.42874813E+01 0.00000000E+00 
4.75124407E+00 2.61952667E+01 0.00000000E+00 
-1.41161871E+00 2.03558025E+01 0.00000000E+00 
-1.41152394E+00 1.82831421E+01 0.00000000E+00 
-1.47984684E+00 1.62193718E+01 0.00000000E+00 
-1.55269098E+00 1.41849861E+01 0.00000000E+00 
-1.61183786E+00 1.21700039E+01 0.00000000E+00 
-1.65644002E+00 1.01618252E+01 0.00000000E+00 
-1.69045985E+00 8.15654087E+00 0.00000000E+00 
-1.74818420E+00 4.17103720E+00 0.00000000E+00 
2.63595510E+00 2.58476467E+01 0.00000000E+00 
5.85341334E-01 2.61480026E+01 0.00000000E+00 
1.48443735E+00 1.99812949E-01 0.00000000E+00 
7.22676218E-01 -3.93087220E+00 0.00000000E+00 
-1.02083135E+00 -8.16479301E+00 0.00000000E+00 
-7.03490305E+00 -6.64700460E+00 0.00000000E+00 
-1.09789371E+01 -6.66079235E+00 0.00000000E+00 
-1.29644680E+01 -6.67540455E+00 0.00000000E+00 
-1.49419928E+01 -6.69405699E+00 0.00000000E+00 
-1.68996048E+01 -6.70987225E+00 0.00000000E+00 
-1.88245621E+01 -6.71467447E+00 0.00000000E+00 
-2.06824856E+01 -6.69600010E+00 0.00000000E+00 
-2.06575108E+01 -3.28913999E+00 0.00000000E+00 
-2.24377365E+01 -6.66452074E+00 0.00000000E+00 
-1.53943622E+00 2.23406563E+01 0.00000000E+00 
1.86250246E+00 1.61861019E+01 0.00000000E+00 
1.77246237E+00 1.41486263E+01 0.00000000E+00 
1.71115601E+00 1.21418839E+01 0.00000000E+00 
1.66675675E+00 1.01430874E+01 0.00000000E+00 
1.63350880E+00 8.14535809E+00 0.00000000E+00 
1.60673702E+00 6.14654064E+00 0.00000000E+00 
-1.71792471E+00 6.15320969E+00 0.00000000E+00 
1.58160424E+00 4.14921808E+00 0.00000000E+00 
-1.77281892E+00 2.20080662E+00 0.00000000E+00 
2.01078510E+00 1.82713623E+01 0.00000000E+00 
-2.40447159E+01 -6.61500549E+00 0.00000000E+00 
-2.40787086E+01 -3.44673610E+00 0.00000000E+00 
3.91073895E+00 2.06671638E+01 0.00000000E+00 
4.69771385E+00 2.40344315E+01 0.00000000E+00 
2.23431134E+00 2.02954235E+01 0.00000000E+00 
-2.63834591E+01 -6.32643604E+00 0.00000000E+00 
2.15098262E-01 1.62336769E+01 0.00000000E+00 
-5.16005945E+00 -3.28352356E+00 0.00000000E+00 
9.15533721E-01 -6.09541035E+00 0.00000000E+00 
-3.12387347E+00 -6.53723431E+00 0.00000000E+00 
-5.13622618E+00 -4.95174408E+00 0.00000000E+00 
-9.00362396E+00 -4.97516680E+00 0.00000000E+00 
-1.09809561E+01 -4.98574305E+00 0.00000000E+00 
[...]
POINT_DATA      777
SCALARS Ux float
LOOKUP_TABLE default
1.00000000E+00
9.41717389E-01
1.00000000E+00
5.82253114E-01
-8.32667268E-17
3.12250226E-17
-2.01227923E-16
-7.45931095E-17
-4.07660017E-17
-8.84708973E-17
-2.94902991E-17
-6.93889390E-18
3.81639165E-17
5.81038300E-01
9.98904536E-01
9.95416392E-01
9.89789723E-01
9.82053111E-01
9.72977872E-01
9.63547928E-01
9.54781609E-01
9.47735390E-01
9.43232593E-01
1.00000000E+00
1.00000000E+00
1.00000000E+00
1.00000000E+00
1.00000000E+00
1.00000000E+00
9.10314144E-01
8.72260228E-01
8.36947060E-01
8.04847307E-01
7.74063174E-01
7.44227799E-01
7.15326642E-01
6.87673023E-01
6.61845255E-01
6.38615775E-01
6.18833419E-01
6.03069540E-01
5.91564430E-01
5.84580633E-01
5.79967352E-01
5.73119636E-01
5.61835350E-01
5.46336160E-01
5.27170373E-01
5.05261497E-01
4.82466417E-01
4.58761527E-01
4.51213447E-01
3.86292213E-01
1.00000000E+00
2.80703639E-01
2.39181544E-01
1.37264619E-01
5.21448024E-01
4.82940541E-01
4.45206539E-01
4.05757629E-01
3.62109669E-01
3.12570716E-01
2.56232467E-01
1.92515184E-01
1.20994017E-01
9.40175821E-01
9.35354949E-01
9.26924439E-01
9.14457342E-01
8.97793012E-01
8.77233937E-01
8.53395341E-01
8.27060408E-01
7.99003821E-01
7.69789013E-01
7.39658846E-01
7.08497663E-01
6.75486916E-01
6.39505689E-01
4.12708275E-02
2.71744254E-02
4.61858253E-02
3.82962208E-02
9.16008135E-01
8.71673218E-01
4.81951697E-01
9.98212397E-01
9.89249271E-01
9.81644225E-01
9.72290489E-01
9.62287342E-01
9.53195940E-01
8.37611704E-01
8.05683059E-01
7.75058913E-01
7.45229998E-01
7.16185321E-01
6.88218377E-01
6.61997687E-01
6.08050040E-01
6.38103123E-01
6.17284070E-01
6.00699974E-01
5.89025565E-01
5.82196492E-01
5.47462605E-01
5.27821600E-01
5.05628064E-01
4.59607960E-01
4.35787184E-01
4.51873260E-01
3.86408271E-01
3.56493608E-01
2.31581341E-01
1.52569866E-01
7.86085641E-02
8.45867431E-02
5.19935281E-01
4.82445187E-01
4.46088836E-01
4.07616789E-01
3.64970260E-01
3.16574080E-01
2.61996379E-01
2.01893263E-01
1.35960683E-01
9.37182701E-01
9.29316179E-01
9.17379135E-01
9.01001380E-01
8.80334409E-01
8.56144021E-01
8.29395023E-01
8.01038621E-01
7.71660699E-01
7.41527457E-01
7.10550566E-01
6.78415830E-01
6.43057271E-01
9.95104752E-01
9.86603563E-01
9.92929585E-01
9.98130981E-01
9.91353124E-01
6.64318367E-02
7.27356125E-02
5.81971672E-01
9.41714294E-01
4.81638658E-01
9.41830985E-01
9.84103864E-01
6.60308356E-01
6.13940968E-01
5.30271171E-01
4.81850685E-01
4.48238334E-01
4.12423009E-01
3.72054907E-01
3.25350097E-01
2.71563501E-01
1.56099374E-01
9.34572290E-01
9.72551164E-01
9.07843773E-01
8.86148313E-01
8.60153786E-01
8.32022404E-01
8.02921769E-01
7.73263821E-01
7.43186662E-01
6.81793986E-01
9.59682238E-01
9.49081167E-01
6.35662920E-01
5.93120772E-01
5.63511326E-01
5.06854764E-01
4.55455713E-01
4.31741563E-01
4.02687751E-01
3.68591484E-01
3.03479818E-01
2.35609031E-01
2.13333366E-01
1.66335700E-01
9.23519220E-01
8.69636777E-01
8.36632336E-01
8.05512401E-01
7.75136949E-01
7.45256856E-01
7.15858354E-01
7.12670445E-01
6.87262110E-01
6.50688575E-01
9.03902057E-01
1.11228743E-01
1.04822151E-01
9.64447498E-01
9.73676444E-01
9.32271401E-01
4.86920339E-02
8.64930926E-01
5.42671876E-01
5.81346078E-01
5.50910496E-01
5.34883313E-01
4.81337925E-01
4.51726978E-01
4.20223780E-01
3.84696706E-01
5.82937077E-01
5.09446040E-01
3.39299621E-01
6.10081290E-01
6.30912686E-01
6.56548572E-01
6.84938578E-01
7.14451817E-01
7.44352339E-01
7.74320735E-01
9.32196588E-01
8.04331923E-01
9.41785519E-01
8.34486515E-01
9.20972046E-01
8.94463830E-01
9.53583659E-01
2.24803837E-01
1.66450090E-01
9.60022145E-01
6.22006752E-01
5.99319547E-01
5.65783450E-01
5.75126926E-01
5.56695520E-01
5.75166342E-01
9.83879196E-01
9.94536578E-01
9.46103819E-01
2.17551363E-02
1.77820460E-02
1.31125677E-02
3.80531248E-02
5.55598860E-01
9.90148916E-01
2.22268682E-02
5.13784664E-01
5.68312571E-01
5.95325852E-01
9.46312765E-01
7.66343775E-02
1.15680270E-01
9.41381624E-01
9.40077500E-01
9.62377321E-01
9.48779362E-01
2.85363693E-01
1.00000000E+00
9.41717389E-01
1.00000000E+00
5.82253119E-01
-1.83880688E-16
-1.59594560E-16
1.04083409E-17
-9.54097912E-18
2.60208521E-18
7.63278329E-17
7.97972799E-17
3.12250226E-17
-1.04083409E-16
5.81038282E-01
9.98729277E-01
9.95387765E-01
9.89793640E-01
9.82052344E-01
9.72978016E-01
9.63547901E-01
9.54781614E-01
9.47735389E-01
9.43232593E-01
1.00000000E+00
1.00000000E+00
1.00000000E+00
1.00000000E+00
1.00000000E+00
1.00000000E+00
9.10314144E-01
8.72260228E-01
8.36947060E-01
8.04847307E-01
7.74063174E-01
7.44227799E-01
7.15326642E-01
6.87673023E-01
6.61845255E-01
6.38615775E-01
6.18833419E-01
6.03069540E-01
5.91564432E-01
5.84580629E-01
5.79967337E-01
5.73119715E-01
5.61834921E-01
5.46338504E-01
5.27157534E-01
5.05332043E-01
4.82075898E-01
4.60952790E-01
4.38602356E-01
4.61159643E-01
4.12662951E-01
3.55864236E-01
2.26573011E-01
1.39325574E-01
5.21448095E-01
4.82940313E-01
4.45207149E-01
4.05755905E-01
3.62113701E-01
3.12563350E-01
2.56236701E-01
1.92513278E-01
1.20994709E-01
9.40175821E-01
9.35354949E-01
9.26924439E-01
9.14457342E-01
8.97793012E-01
8.77233937E-01
8.53395341E-01
8.27060408E-01
7.99003821E-01
7.69789013E-01
7.39658846E-01
7.08497664E-01
6.75486916E-01
6.39505692E-01
4.12549635E-02
2.71764011E-02
4.61867350E-02
3.82958552E-02
9.16008134E-01
8.71673218E-01
4.82112651E-01
9.98174693E-01
9.89248000E-01
9.81644425E-01
9.72290449E-01
9.62287350E-01
9.53195938E-01
8.37611704E-01
8.05683059E-01
7.75058913E-01
7.45229998E-01
7.16185321E-01
6.88218377E-01
6.61997686E-01
6.08050044E-01
6.38103123E-01
6.17284069E-01
6.00699976E-01
5.89025561E-01
5.82196501E-01
5.47461380E-01
5.27827838E-01
5.05596448E-01
4.58780252E-01
4.40077183E-01
4.28622656E-01
4.27703819E-01
3.28990209E-01
2.36794630E-01
1.51539706E-01
7.86094391E-02
8.47365646E-02
5.19935055E-01
4.82445769E-01
4.46086998E-01
4.07621494E-01
3.64957689E-01
3.16598760E-01
2.61982201E-01
2.01899304E-01
1.35958083E-01
9.37182701E-01
9.29316179E-01
9.17379135E-01
9.01001380E-01
8.80334409E-01
8.56144021E-01
8.29395023E-01
8.01038621E-01
7.71660699E-01
7.41527457E-01
7.10550566E-01
6.78415830E-01
6.43057270E-01
9.95107240E-01
9.86603558E-01
9.92929262E-01
9.97962783E-01
9.91353157E-01
6.64334825E-02
7.27482199E-02
5.81971654E-01
9.41714294E-01
4.81581726E-01
9.41830985E-01
9.84103890E-01
6.60308356E-01
6.13940969E-01
5.30268719E-01
4.81847121E-01
4.48246768E-01
4.12395218E-01
3.72122200E-01
3.25189128E-01
2.71644068E-01
1.56113506E-01
9.34572290E-01
9.72551161E-01
9.07843773E-01
8.86148313E-01
8.60153786E-01
8.32022404E-01
8.02921769E-01
7.73263821E-01
7.43186662E-01
6.81793986E-01
9.59682238E-01
9.49081167E-01
6.35662920E-01
5.93120766E-01
5.63511564E-01
5.06866636E-01
4.55720082E-01
4.30615361E-01
4.04737394E-01
3.61065947E-01
3.05944694E-01
2.33967025E-01
2.13294821E-01
1.66724380E-01
9.23519220E-01
8.69636777E-01
8.36632336E-01
8.05512401E-01
7.75136949E-01
7.45256856E-01
7.15858354E-01
7.12670445E-01
6.87262110E-01
6.50688575E-01
9.03902057E-01
1.11149552E-01
1.04815404E-01
9.64447498E-01
9.73676446E-01
9.32271401E-01
4.86906225E-02
8.64930926E-01
5.42671605E-01
5.81346098E-01
5.50910998E-01
5.34884183E-01
4.81354600E-01
4.51665923E-01
4.20351631E-01
3.84253994E-01
5.82937063E-01
5.09442104E-01
3.40292855E-01
6.10081289E-01
6.30912686E-01
6.56548572E-01
6.84938578E-01
7.14451817E-01
7.44352339E-01
7.74320735E-01
9.32196588E-01
8.04331923E-01
9.41785519E-01
8.34486515E-01
9.20972046E-01
8.94463830E-01
9.53583659E-01
2.24994430E-01
1.66341994E-01
9.60022145E-01
6.22006750E-01
5.99319551E-01
5.65783511E-01
5.75126963E-01
5.56695335E-01
5.75166297E-01
9.83879173E-01
9.94540154E-01
9.46103820E-01
2.17548278E-02
1.77821475E-02
1.31125300E-02
3.80527756E-02
5.55598931E-01
9.90148782E-01
2.22269712E-02
5.13785729E-01
5.68312471E-01
5.95325856E-01
9.46312765E-01
7.66291179E-02
1.15707555E-01
9.41381624E-01
9.40077500E-01
9.62377321E-01
9.48779362E-01
2.84830418E-01
1.00000000E+00
9.41717389E-01
1.00000000E+00
5.82253114E-01
-9.23837771E-17
9.90161676E-17
7.70904290E-18
-5.29993475E-19
-7.33569470E-17
4.59849973E-17
-8.91210044E-17
5.13174235E-17
1.26513205E-16
5.81038285E-01
9.98336456E-01
9.95409228E-01
9.89787822E-01
9.82053350E-01
9.72977841E-01
9.63547932E-01
9.54781608E-01
9.47735390E-01
9.43232593E-01
1.00000000E+00
1.00000000E+00
1.00000000E+00
1.00000000E+00
1.00000000E+00
9.98138794E-01
9.10314144E-01
8.72260228E-01
8.36947060E-01
8.04847307E-01
7.74063174E-01
7.44227799E-01
7.15326642E-01
6.87673023E-01
6.61845255E-01
6.38615775E-01
6.18833419E-01
6.03069540E-01
5.91564431E-01
5.84580632E-01
5.79967351E-01
5.73119645E-01
5.61835294E-01
5.46336535E-01
5.27167856E-01
5.05278448E-01
4.82351019E-01
4.59563384E-01
4.45364463E-01
4.30513569E-01
4.03861188E-01
3.25056969E-01
2.33372388E-01
1.37988535E-01
5.21448060E-01
4.82940444E-01
4.45206639E-01
4.05757376E-01
3.62109873E-01
3.12570313E-01
2.56232734E-01
1.92514827E-01
1.20994225E-01
9.40175821E-01
9.35354949E-01
9.26924439E-01
9.14457342E-01
8.97793012E-01
8.77233937E-01
8.53395341E-01
8.27060408E-01
7.99003821E-01
7.69789013E-01
7.39658846E-01
7.08497663E-01
6.75486916E-01
6.39505691E-01
4.12686885E-02
2.71747198E-02
4.61864479E-02
3.82958779E-02
9.16008134E-01
8.71673218E-01
4.82044385E-01
9.98123154E-01
9.89249860E-01
9.81644096E-01
9.72290508E-01
9.62287339E-01
9.53195940E-01
8.37611704E-01
8.05683059E-01
7.75058913E-01
7.45229998E-01
7.16185321E-01
6.88218377E-01
6.61997687E-01
6.08050043E-01
6.38103123E-01
6.17284070E-01
6.00699975E-01
5.89025564E-01
5.82196493E-01
5.47462268E-01
5.27823799E-01
5.05613797E-01
4.59004614E-01
4.39663913E-01
4.25608754E-01
3.86632769E-01
3.24304446E-01
2.36256008E-01
1.51869051E-01
7.86092131E-02
8.46773307E-02
5.19935086E-01
4.82445470E-01
4.46088040E-01
4.07617459E-01
3.64968495E-01
3.16575339E-01
2.61994144E-01
2.01894630E-01
1.35959242E-01
9.37182701E-01
9.29316179E-01
9.17379135E-01
9.01001380E-01
8.80334409E-01
8.56144021E-01
8.29395023E-01
8.01038621E-01
7.71660699E-01
7.41527457E-01
7.10550566E-01
6.78415830E-01
6.43057270E-01
9.95109297E-01
9.86603556E-01
9.92929017E-01
9.97957863E-01
9.91353175E-01
6.64336119E-02
7.27428559E-02
5.81971655E-01
9.41714294E-01
4.81588634E-01
9.41830985E-01
9.84103947E-01
6.60308356E-01
6.13940968E-01
5.30269729E-01
4.81847337E-01
4.48242015E-01
4.12410573E-01
3.72062687E-01
3.25328335E-01
2.71575845E-01
1.56108107E-01
9.34572290E-01
9.72551150E-01
9.07843773E-01
8.86148313E-01
8.60153786E-01
8.32022404E-01
8.02921769E-01
7.73263821E-01
7.43186662E-01
6.81793986E-01
9.59682239E-01
9.49081167E-01
6.35662920E-01
5.93120770E-01
5.63511376E-01
5.06863424E-01
4.55723130E-01
4.30513995E-01
4.03028613E-01
3.65836780E-01
3.03957482E-01
2.33701506E-01
2.13313708E-01
1.66719085E-01
9.23519220E-01
8.69636777E-01
8.36632336E-01
8.05512401E-01
7.75136949E-01
7.45256856E-01
7.15858354E-01
7.12670445E-01
6.87262110E-01
6.50688575E-01
9.03902057E-01
1.11163163E-01
1.04814568E-01
9.64447498E-01
9.73676448E-01
9.32271401E-01
4.86921808E-02
8.64930926E-01
5.42671608E-01
5.81346084E-01
5.50910730E-01
5.34884034E-01
4.81355218E-01
4.51665033E-01
4.20265921E-01
3.84505728E-01
5.82937067E-01
5.09442284E-01
3.39374633E-01
6.10081289E-01
6.30912686E-01
6.56548572E-01
6.84938578E-01
7.14451817E-01
7.44352339E-01
7.74320735E-01
9.32196588E-01
8.04331923E-01
9.41785519E-01
8.34486515E-01
9.20972046E-01
8.94463830E-01
9.53583659E-01
2.24891993E-01
1.66327562E-01
9.60022144E-01
6.22006751E-01
5.99319551E-01
5.65783504E-01
5.75126947E-01
5.56695393E-01
5.75166335E-01
9.83879145E-01
9.94523344E-01
9.46103819E-01
2.17551282E-02
1.77821082E-02
1.31125337E-02
3.80527281E-02
5.55598930E-01
9.90148491E-01
2.22269831E-02
5.13785757E-01
5.68312535E-01
5.95325855E-01
9.46312765E-01
7.66298319E-02
1.15708638E-01
9.41381624E-01
9.40077500E-01
9.62377320E-01
9.48779362E-01
2.85128414E-01
